********************************************************************************
*                       GENERAL UTILITY LATTICE PROGRAM                        *
*                                 Julian Gale                                  *
*                      Nanochemistry Research Institute                        *
*                           Department of Chemistry                            *
*                    Curtin University, Western Australia                      *
********************************************************************************
* Version = 4.3.5 * Last modified = 16th December 2015                         *
********************************************************************************
*  optimise     - perform optimisation run                                     *
*  conp         - constant pressure calculation                                *
********************************************************************************
* ASE calculation                                                              *
********************************************************************************


  Job Started  at 15:28.11 16th April      2021                               

  Number of CPUs =     1


  Total number of configurations input =   1

********************************************************************************
*  Input for Configuration =   1                                               *
********************************************************************************

  Formula = Sr16O48Ti16                                                 

  Number of irreducible atoms/shells =      80


  Total number atoms/shells =      80

  Dimensionality = 3               :  Bulk   



  Cartesian lattice vectors (Angstroms) :

        8.000000    0.000000    0.000000
        0.000000    8.000000    0.000000
        0.000000    0.000000   16.000000

  Cell parameters (Angstroms/Degrees):

  a =       8.0000    alpha =  90.0000
  b =       8.0000    beta  =  90.0000
  c =      16.0000    gamma =  90.0000

  Initial cell volume =        1024.000000 Angs**3

  Temperature of configuration =  0.000     K 

  Pressure of configuration =         0.000 GPa 

  Fractional coordinates of asymmetric unit :

--------------------------------------------------------------------------------
   No.  Atomic       x           y          z         Charge      Occupancy
        Label      (Frac)      (Frac)     (Frac)        (e)         (Frac)  
--------------------------------------------------------------------------------
      1 Sr    c    0.012418    0.996543    0.008096     2.00000    1.000000    
      2 O     c    0.280024 *  0.237283 *  0.006986 *  -2.00000    1.000000    
      3 Sr    c    0.999035 *  0.498201 *  0.005537 *   2.00000    1.000000    
      4 O     c    0.237227 *  0.769381 *  0.998174 *  -2.00000    1.000000    
      5 Sr    c    0.507703 *  0.008847 *  0.006082 *   2.00000    1.000000    
      6 O     c    0.762826 *  0.254621 *  0.005309 *  -2.00000    1.000000    
      7 Sr    c    0.519983 *  0.487616 *  0.007275 *   2.00000    1.000000    
      8 O     c    0.767461 *  0.731744 *  0.006574 *  -2.00000    1.000000    
      9 Ti    c    0.257764 *  0.253267 *  0.125471 *   4.00000    1.000000    
     10 O     c    0.508610 *  0.252231 *  0.127542 *  -2.00000    1.000000    
     11 O     c    0.255574 *  0.504235 *  0.118384 *  -2.00000    1.000000    
     12 Ti    c    0.254456 *  0.752635 *  0.121428 *   4.00000    1.000000    
     13 O     c    0.502922 *  0.752355 *  0.118054 *  -2.00000    1.000000    
     14 O     c    0.256066 *  0.002143 *  0.127383 *  -2.00000    1.000000    
     15 Ti    c    0.758801 *  0.250336 *  0.124393 *   4.00000    1.000000    
     16 O     c    0.009501 *  0.251959 *  0.123211 *  -2.00000    1.000000    
     17 O     c    0.756100 *  0.501013 *  0.128242 *  -2.00000    1.000000    
     18 Ti    c    0.754069 *  0.750901 *  0.125390 *   4.00000    1.000000    
     19 O     c    0.004691 *  0.752130 *  0.127081 *  -2.00000    1.000000    
     20 O     c    0.755668 *  0.999713 *  0.121923 *  -2.00000    1.000000    
     21 Sr    c    0.001734 *  0.004810 *  0.243824 *   2.00000    1.000000    
     22 O     c    0.249778 *  0.265332 *  0.243515 *  -2.00000    1.000000    
     23 Sr    c    0.001910 *  0.506181 *  0.244163 *   2.00000    1.000000    
     24 O     c    0.258034 *  0.747989 *  0.242315 *  -2.00000    1.000000    
     25 Sr    c    0.500683 *  0.005041 *  0.244186 *   2.00000    1.000000    
     26 O     c    0.757398 *  0.248468 *  0.243723 *  -2.00000    1.000000    
     27 Sr    c    0.500623 *  0.506129 *  0.243960 *   2.00000    1.000000    
     28 O     c    0.740752 *  0.759597 *  0.243454 *  -2.00000    1.000000    
     29 Ti    c    0.245604 *  0.259018 *  0.363042 *   4.00000    1.000000    
     30 O     c    0.497421 *  0.259356 *  0.361531 *  -2.00000    1.000000    
     31 O     c    0.245713 *  0.509636 *  0.366706 *  -2.00000    1.000000    
     32 Ti    c    0.245227 *  0.759892 *  0.362605 *   4.00000    1.000000    
     33 O     c    0.495736 *  0.759422 *  0.366874 *  -2.00000    1.000000    
     34 O     c    0.246644 *  0.009534 *  0.357205 *  -2.00000    1.000000    
     35 Ti    c    0.748056 *  0.257946 *  0.363274 *   4.00000    1.000000    
     36 O     c    0.997106 *  0.259235 *  0.364184 *  -2.00000    1.000000    
     37 O     c    0.745943 *  0.508387 *  0.360545 *  -2.00000    1.000000    
     38 Ti    c    0.746346 *  0.759276 *  0.363256 *   4.00000    1.000000    
     39 O     c    0.995607 *  0.758763 *  0.357423 *  -2.00000    1.000000    
     40 O     c    0.746074 *  0.008359 *  0.365360 *  -2.00000    1.000000    
     41 Sr    c    0.989990 *  0.012637 *  0.483142 *   2.00000    1.000000    
     42 O     c    0.245871 *  0.250404 *  0.480165 *  -2.00000    1.000000    
     43 Sr    c    0.986771 *  0.515554 *  0.482127 *   2.00000    1.000000    
     44 O     c    0.229318 *  0.775543 *  0.479546 *  -2.00000    1.000000    
     45 Sr    c    0.485896 *  0.017818 *  0.480716 *   2.00000    1.000000    
     46 O     c    0.741900 *  0.265773 *  0.481189 *  -2.00000    1.000000    
     47 Sr    c    0.495857 *  0.506493 *  0.478425 *   2.00000    1.000000    
     48 O     c    0.753515 *  0.755776 *  0.480719 *  -2.00000    1.000000    
     49 Sr    c    0.205976 *  0.281731 *  0.626367 *   2.00000    1.000000    
     50 O     c    0.441288 *  0.549062 *  0.619966 *  -2.00000    1.000000    
     51 Sr    c    0.225172 *  0.767661 *  0.626629 *   2.00000    1.000000    
     52 O     c    0.500818 *  0.020749 *  0.629427 *  -2.00000    1.000000    
     53 Sr    c    0.733790 *  0.260154 *  0.634085 *   2.00000    1.000000    
     54 O     c    0.989392 *  0.497455 *  0.632329 *  -2.00000    1.000000    
     55 Sr    c    0.705681 *  0.792328 *  0.626230 *   2.00000    1.000000    
     56 O     c    0.957486 *  0.039433 *  0.634642 *  -2.00000    1.000000    
     57 Ti    c    0.002495 *  0.988154 *  0.748336 *   4.00000    1.000000    
     58 O     c    0.219395 *  0.039529 *  0.723343 *  -2.00000    1.000000    
     59 O     c    0.924341 *  0.301973 *  0.769712 *  -2.00000    1.000000    
     60 Ti    c    0.940073 *  0.538090 *  0.746586 *   4.00000    1.000000    
     61 O     c    0.225500 *  0.566093 *  0.761506 *  -2.00000    1.000000    
     62 O     c    0.939083 *  0.774246 *  0.725092 *  -2.00000    1.000000    
     63 Ti    c    0.458991 *  0.046686 *  0.746612 *   4.00000    1.000000    
     64 O     c    0.700590 *  0.063224 *  0.766395 *  -2.00000    1.000000    
     65 O     c    0.433831 *  0.297105 *  0.731591 *  -2.00000    1.000000    
     66 Ti    c    0.466055 *  0.528128 *  0.734290 *   4.00000    1.000000    
     67 O     c    0.696233 *  0.543389 *  0.725264 *  -2.00000    1.000000    
     68 O     c    0.452538 *  0.784040 *  0.754887 *  -2.00000    1.000000    
     69 Ti    c    0.255059 *  0.266822 *  0.892642 *   4.00000    1.000000    
     70 O     c    0.612155 *  0.361446 *  0.873474 *  -2.00000    1.000000    
     71 O     c    0.263892 *  0.493173 *  0.904593 *  -2.00000    1.000000    
     72 Ti    c    0.274209 *  0.726214 *  0.877929 *   4.00000    1.000000    
     73 O     c    0.510133 *  0.735557 *  0.901660 *  -2.00000    1.000000    
     74 O     c    0.385444 *  0.094550 *  0.860296 *  -2.00000    1.000000    
     75 Ti    c    0.786892 *  0.220977 *  0.871500 *   4.00000    1.000000    
     76 O     c    0.031044 *  0.222081 *  0.899769 *  -2.00000    1.000000    
     77 O     c    0.882349 *  0.604122 *  0.859923 *  -2.00000    1.000000    
     78 Ti    c    0.735488 *  0.760629 *  0.893044 *   4.00000    1.000000    
     79 O     c    0.108809 *  0.874636 *  0.847862 *  -2.00000    1.000000    
     80 O     c    0.779314 *  0.982651 *  0.901622 *  -2.00000    1.000000    
--------------------------------------------------------------------------------



********************************************************************************
*  General input information                                                   *
********************************************************************************

  Species output for all configurations : 

--------------------------------------------------------------------------------
  Species    Type    Atomic    Atomic    Charge       Radii (Angs)     Library
                     Number     Mass       (e)     Cova   Ionic  VDW   Symbol
--------------------------------------------------------------------------------
    Sr       Core       38      87.62   2.000000   1.120  0.000  1.670          
    O        Core        8      16.00  -2.000000   0.730  0.000  1.360          
    Ti       Core       22      47.88   4.000000   1.470  0.000  2.190          
--------------------------------------------------------------------------------


  Lattice summation method               =    Ewald          (3-D)
                                         =    Parry          (2-D)
                                         =    Saunders et al (1-D)
  Accuracy factor for lattice sums       =   12.000


  Time limit =     900.00 seconds

  Maximum range for interatomic potentials =    100000.000000 Angstroms

  C6 terms to be calculated in real and reciprocal space 

  General interatomic potentials :

--------------------------------------------------------------------------------
Atom  Types   Potential         A         B         C         D     Cutoffs(Ang)
  1     2                                                            Min    Max 
--------------------------------------------------------------------------------
O    c Sr   c Buckingham    0.195E+04 0.337      19.2      0.00     1.200 12.000
O    c Ti   c Buckingham    0.459E+04 0.261      0.00      0.00     1.200 12.000
O    c O    c Buckingham    0.139E+04 0.363      175.      0.00     1.200 12.000
--------------------------------------------------------------------------------

********************************************************************************
*  Output for configuration   1                                                *
********************************************************************************


  Components of energy : 

--------------------------------------------------------------------------------
  Interatomic potentials     =         463.12404878 eV
  Monopole - monopole (real) =       -1821.37898165 eV
  Monopole - monopole (recip)=       -1053.83257953 eV
  Monopole - monopole (total)=       -2875.21156119 eV
  Dispersion (real+recip)    =         -96.40281726 eV
--------------------------------------------------------------------------------
  Total lattice energy       =       -2508.49032966 eV
--------------------------------------------------------------------------------
  Total lattice energy       =         -242030.9710 kJ/(mole unit cells)
--------------------------------------------------------------------------------


  Number of variables =      243

  Maximum number of calculations  =          5000
  Maximum Hessian update interval =            10
  Maximum step size               =   1.000000000
  Maximum parameter tolerance     =   0.000010000
  Maximum function  tolerance     =   0.000010000
  Maximum gradient  tolerance     =   0.001000000
  Maximum gradient  component     =   0.010000000

  Symmetry not applied to optimisation

  Cell parameters to be optimised using strains

  Newton-Raphson optimiser to be used

  BFGS hessian update to be used

  Start of bulk optimisation :

  Cycle:      0 Energy:     -2508.490330  Gnorm:      0.403402  CPU:    0.578
  ** Hessian calculated **
  Cycle:      1 Energy:     -2509.331690  Gnorm:      0.384378  CPU:    1.359
  Cycle:      2 Energy:     -2510.845669  Gnorm:      0.255341  CPU:    2.000
  ** Hessian calculated **
  Cycle:      3 Energy:     -2511.422280  Gnorm:      0.296005  CPU:    2.969
  ** Hessian calculated **
  Cycle:      4 Energy:     -2511.814778  Gnorm:      0.183889  CPU:    3.922
  Cycle:      5 Energy:     -2511.995847  Gnorm:      0.170570  CPU:    4.469
  Cycle:      6 Energy:     -2512.130421  Gnorm:      0.130172  CPU:    5.094
  Cycle:      7 Energy:     -2512.290076  Gnorm:      0.183712  CPU:    5.719
  Cycle:      8 Energy:     -2512.544344  Gnorm:      0.270386  CPU:    6.328
  Cycle:      9 Energy:     -2512.910180  Gnorm:      0.241051  CPU:    6.969
  Cycle:     10 Energy:     -2513.528400  Gnorm:      0.281417  CPU:    7.594
  Cycle:     11 Energy:     -2514.277368  Gnorm:      0.357445  CPU:    8.219
  Cycle:     12 Energy:     -2515.047487  Gnorm:      0.326993  CPU:    8.750
  Cycle:     13 Energy:     -2515.834192  Gnorm:      0.374915  CPU:    9.375
  ** Hessian calculated **
  Cycle:     14 Energy:     -2516.495836  Gnorm:      0.339113  CPU:   10.313
  Cycle:     15 Energy:     -2517.227581  Gnorm:      0.426083  CPU:   10.953
  Cycle:     16 Energy:     -2518.242345  Gnorm:      0.430168  CPU:   11.578
  Cycle:     17 Energy:     -2519.692639  Gnorm:      0.485224  CPU:   12.188
  Cycle:     18 Energy:     -2521.115204  Gnorm:      0.557639  CPU:   12.766
  Cycle:     19 Energy:     -2522.418007  Gnorm:      0.379931  CPU:   13.328
  Cycle:     20 Energy:     -2523.747537  Gnorm:      0.432146  CPU:   14.031
  Cycle:     21 Energy:     -2524.669610  Gnorm:      0.315585  CPU:   14.625
  Cycle:     22 Energy:     -2525.126524  Gnorm:      0.238430  CPU:   15.234
  Cycle:     23 Energy:     -2525.404498  Gnorm:      0.132438  CPU:   15.859
  ** Hessian calculated **
  Cycle:     24 Energy:     -2526.105605  Gnorm:      0.094990  CPU:   17.266
  Cycle:     25 Energy:     -2526.742523  Gnorm:      0.044639  CPU:   18.109
  Cycle:     26 Energy:     -2526.898833  Gnorm:      0.020955  CPU:   18.703
  Cycle:     27 Energy:     -2526.901426  Gnorm:      0.004254  CPU:   19.297
  Cycle:     28 Energy:     -2526.901579  Gnorm:      0.000954  CPU:   19.891
  Cycle:     29 Energy:     -2526.901589  Gnorm:      0.000211  CPU:   20.469


  **** Optimisation achieved ****


  Final energy =   -2526.90158972 eV
  Final Gnorm  =       0.00004209

  Components of energy : 

--------------------------------------------------------------------------------
  Interatomic potentials     =         444.34506535 eV
  Monopole - monopole (real) =       -1823.02981892 eV
  Monopole - monopole (recip)=       -1053.19110587 eV
  Monopole - monopole (total)=       -2876.22092479 eV
  Dispersion (real+recip)    =         -95.02573028 eV
--------------------------------------------------------------------------------
  Total lattice energy       =       -2526.90158972 eV
--------------------------------------------------------------------------------
  Total lattice energy       =         -243807.3762 kJ/(mole unit cells)
--------------------------------------------------------------------------------

  Final fractional coordinates of atoms :

--------------------------------------------------------------------------------
   No.  Atomic        x           y          z          Radius
        Label       (Frac)      (Frac)     (Frac)       (Angs) 
--------------------------------------------------------------------------------
     1  Sr    c     0.012418    0.996543    0.008096    0.000000
     2  O     c     0.262115    0.246542    0.009319    0.000000
     3  Sr    c     0.012420    0.496543    0.008097    0.000000
     4  O     c     0.262115    0.746542    0.009319    0.000000
     5  Sr    c     0.512419    0.996542    0.008096    0.000000
     6  O     c     0.762113    0.246542    0.009319    0.000000
     7  Sr    c     0.512420    0.496542    0.008096    0.000000
     8  O     c     0.762113    0.746540    0.009318    0.000000
     9  Ti    c     0.232288    0.246542    0.128622    0.000000
    10  O     c     0.482170    0.246542    0.129093    0.000000
    11  O     c     0.232509    0.496542    0.127739    0.000000
    12  Ti    c     0.232288    0.746542    0.128622    0.000000
    13  O     c     0.482170    0.746542    0.129093    0.000000
    14  O     c     0.232509    0.996542    0.127739    0.000000
    15  Ti    c     0.732288    0.246542    0.128622    0.000000
    16  O     c     0.982171    0.246542    0.129093    0.000000
    17  O     c     0.732509    0.496542    0.127740    0.000000
    18  Ti    c     0.732288    0.746542    0.128622    0.000000
    19  O     c     0.982170    0.746543    0.129092    0.000000
    20  O     c     0.732509    0.996542    0.127739    0.000000
    21  Sr    c     0.952536    0.996542    0.247633    0.000000
    22  O     c     0.202514    0.246543    0.247718    0.000000
    23  Sr    c     0.952535    0.496542    0.247633    0.000000
    24  O     c     0.202514    0.746542    0.247718    0.000000
    25  Sr    c     0.452535    0.996542    0.247633    0.000000
    26  O     c     0.702514    0.246542    0.247718    0.000000
    27  Sr    c     0.452536    0.496542    0.247633    0.000000
    28  O     c     0.702515    0.746542    0.247718    0.000000
    29  Ti    c     0.172658    0.246542    0.367143    0.000000
    30  O     c     0.422685    0.246542    0.367035    0.000000
    31  O     c     0.172676    0.496542    0.367069    0.000000
    32  Ti    c     0.172658    0.746542    0.367143    0.000000
    33  O     c     0.422685    0.746542    0.367034    0.000000
    34  O     c     0.172676    0.996542    0.367069    0.000000
    35  Ti    c     0.672658    0.246542    0.367143    0.000000
    36  O     c     0.922685    0.246542    0.367035    0.000000
    37  O     c     0.672676    0.496542    0.367069    0.000000
    38  Ti    c     0.672658    0.746542    0.367143    0.000000
    39  O     c     0.922685    0.746542    0.367035    0.000000
    40  O     c     0.672676    0.996542    0.367069    0.000000
    41  Sr    c     0.892881    0.996542    0.486248    0.000000
    42  O     c     0.143244    0.246542    0.484799    0.000000
    43  Sr    c     0.892881    0.496542    0.486249    0.000000
    44  O     c     0.143243    0.746543    0.484799    0.000000
    45  Sr    c     0.392881    0.996542    0.486248    0.000000
    46  O     c     0.643244    0.246542    0.484800    0.000000
    47  Sr    c     0.392881    0.496542    0.486248    0.000000
    48  O     c     0.643243    0.746542    0.484799    0.000000
    49  Sr    c     0.105721    0.246542    0.634888    0.000000
    50  O     c     0.355630    0.496542    0.635252    0.000000
    51  Sr    c     0.105721    0.746542    0.634889    0.000000
    52  O     c     0.355630    0.996542    0.635252    0.000000
    53  Sr    c     0.605720    0.246542    0.634888    0.000000
    54  O     c     0.855630    0.496542    0.635252    0.000000
    55  Sr    c     0.605721    0.746542    0.634889    0.000000
    56  O     c     0.855630    0.996542    0.635252    0.000000
    57  Ti    c     0.826673    0.996542    0.751077    0.000000
    58  O     c     0.079356    0.996542    0.740348    0.000000
    59  O     c     0.821755    0.246541    0.770748    0.000000
    60  Ti    c     0.826673    0.496542    0.751077    0.000000
    61  O     c     0.079356    0.496542    0.740349    0.000000
    62  O     c     0.821756    0.746542    0.770748    0.000000
    63  Ti    c     0.326674    0.996542    0.751077    0.000000
    64  O     c     0.579356    0.996542    0.740349    0.000000
    65  O     c     0.321756    0.246542    0.770748    0.000000
    66  Ti    c     0.326673    0.496542    0.751077    0.000000
    67  O     c     0.579355    0.496542    0.740348    0.000000
    68  O     c     0.321756    0.746542    0.770748    0.000000
    69  Ti    c     0.291417    0.246542    0.892106    0.000000
    70  O     c     0.538781    0.246542    0.902648    0.000000
    71  O     c     0.296322    0.496542    0.872485    0.000000
    72  Ti    c     0.291418    0.746542    0.892106    0.000000
    73  O     c     0.538781    0.746542    0.902647    0.000000
    74  O     c     0.296322    0.996542    0.872485    0.000000
    75  Ti    c     0.791417    0.246542    0.892106    0.000000
    76  O     c     0.038781    0.246542    0.902648    0.000000
    77  O     c     0.796322    0.496542    0.872485    0.000000
    78  Ti    c     0.791417    0.746542    0.892106    0.000000
    79  O     c     0.038781    0.746542    0.902648    0.000000
    80  O     c     0.796322    0.996542    0.872486    0.000000
--------------------------------------------------------------------------------

  Final Cartesian lattice vectors (Angstroms) :

        7.741797    0.000001    0.464873
        0.000001    7.882410   -0.000001
        0.929746   -0.000001   16.864882


  Final cell parameters and derivatives :

--------------------------------------------------------------------------------
       a            7.755742 Angstrom     dE/de1(xx)     0.001827 eV/strain
       b            7.882410 Angstrom     dE/de2(yy)    -0.000571 eV/strain
       c           16.890491 Angstrom     dE/de3(zz)     0.000639 eV/strain
       alpha       90.000000 Degrees      dE/de4(yz)     0.000152 eV/strain
       beta        83.408207 Degrees      dE/de5(xz)     0.000426 eV/strain
       gamma       90.000000 Degrees      dE/de6(xy)     0.000154 eV/strain
--------------------------------------------------------------------------------

  Primitive cell volume =          1025.756042 Angs**3

  Density of cell =      4.753002 g/cm**3

  Non-primitive cell volume =          1025.756042 Angs**3


  Final internal derivatives :

--------------------------------------------------------------------------------
   No.  Atomic          a             b             c           Radius
        Label          (eV)          (eV)          (eV)        (eV/Angs)
--------------------------------------------------------------------------------
      1 Sr    c       0.000000      0.000000      0.000000      0.000000
      2 O     c       0.000153      0.000428     -0.000611      0.000000
      3 Sr    c       0.000110      0.000234      0.001197      0.000000
      4 O     c       0.000151     -0.000309     -0.001406      0.000000
      5 Sr    c      -0.000175     -0.000232     -0.001042      0.000000
      6 O     c      -0.000191      0.000092      0.000788      0.000000
      7 Sr    c       0.000184      0.000133      0.000067      0.000000
      8 O     c      -0.000200     -0.000830     -0.002621      0.000000
      9 Ti    c       0.000487      0.000389      0.001179      0.000000
     10 O     c      -0.000380      0.000070      0.000875      0.000000
     11 O     c      -0.000017     -0.000573     -0.001528      0.000000
     12 Ti    c       0.000106     -0.000190      0.000384      0.000000
     13 O     c       0.000063      0.000067      0.001146      0.000000
     14 O     c      -0.000199      0.000430      0.000132      0.000000
     15 Ti    c       0.000180     -0.000101      0.000228      0.000000
     16 O     c       0.000461     -0.000156     -0.000034      0.000000
     17 O     c       0.000221     -0.000651      0.000201      0.000000
     18 Ti    c       0.000742      0.000687      0.001545      0.000000
     19 O     c      -0.000557      0.000092     -0.000046      0.000000
     20 O     c      -0.000027     -0.000038      0.000165      0.000000
     21 Sr    c      -0.000077     -0.000175     -0.000905      0.000000
     22 O     c       0.000191     -0.000080      0.000092      0.000000
     23 Sr    c       0.000091      0.000107      0.000739      0.000000
     24 O     c       0.000056      0.000110      0.001530      0.000000
     25 Sr    c       0.000094      0.000030      0.000134      0.000000
     26 O     c      -0.000335      0.000256      0.000957      0.000000
     27 Sr    c       0.000082     -0.000077     -0.000904      0.000000
     28 O     c      -0.000095     -0.000074      0.000250      0.000000
     29 Ti    c       0.000048      0.000245     -0.000086      0.000000
     30 O     c       0.000537     -0.000401     -0.000600      0.000000
     31 O     c      -0.000380      0.000180     -0.000323      0.000000
     32 Ti    c      -0.000116     -0.000239     -0.000127      0.000000
     33 O     c      -0.000152      0.000208     -0.000752      0.000000
     34 O     c       0.000267     -0.000233     -0.000156      0.000000
     35 Ti    c       0.000026      0.000147     -0.000413      0.000000
     36 O     c      -0.000258      0.000158     -0.000384      0.000000
     37 O     c       0.000064     -0.000220      0.000153      0.000000
     38 Ti    c       0.000058     -0.000082     -0.000537      0.000000
     39 O     c       0.000281     -0.000143     -0.000768      0.000000
     40 O     c      -0.000236      0.000228      0.000437      0.000000
     41 Sr    c      -0.000083     -0.000073     -0.000234      0.000000
     42 O     c       0.000109      0.000035      0.001147      0.000000
     43 Sr    c       0.000151      0.000099     -0.000096      0.000000
     44 O     c      -0.000114      0.000249      0.000565      0.000000
     45 Sr    c       0.000045     -0.000000     -0.000206      0.000000
     46 O     c       0.000173     -0.000202      0.001125      0.000000
     47 Sr    c      -0.000055      0.000057     -0.000333      0.000000
     48 O     c      -0.000015      0.000122      0.000625      0.000000
     49 Sr    c      -0.000064     -0.000019     -0.000185      0.000000
     50 O     c       0.000036     -0.000099     -0.000757      0.000000
     51 Sr    c       0.000007     -0.000317      0.000260      0.000000
     52 O     c       0.000022     -0.000037     -0.000753      0.000000
     53 Sr    c      -0.000111      0.000113     -0.000423      0.000000
     54 O     c      -0.000211     -0.000000     -0.000316      0.000000
     55 Sr    c      -0.000001     -0.000022      0.000483      0.000000
     56 O     c      -0.000038     -0.000038     -0.000707      0.000000
     57 Ti    c      -0.000214      0.000532      0.000132      0.000000
     58 O     c       0.000307     -0.000301      0.000311      0.000000
     59 O     c      -0.000772     -0.000843      0.000604      0.000000
     60 Ti    c      -0.000397      0.000094     -0.000923      0.000000
     61 O     c       0.001950      0.000238      0.001749      0.000000
     62 O     c      -0.000398      0.000605      0.000694      0.000000
     63 Ti    c       0.000046      0.000273     -0.000697      0.000000
     64 O     c       0.000090     -0.000338      0.001029      0.000000
     65 O     c      -0.000341      0.000052      0.000601      0.000000
     66 Ti    c      -0.000536     -0.000195     -0.000864      0.000000
     67 O     c      -0.000517      0.000262      0.001397      0.000000
     68 O     c       0.000102     -0.000702      0.000735      0.000000
     69 Ti    c       0.001058      0.000174      0.000498      0.000000
     70 O     c      -0.001010      0.000424     -0.001143      0.000000
     71 O     c       0.000316      0.000250     -0.000288      0.000000
     72 Ti    c       0.003198      0.000661      0.002666      0.000000
     73 O     c      -0.002333     -0.000196     -0.002046      0.000000
     74 O     c       0.000124     -0.000831     -0.002016      0.000000
     75 Ti    c      -0.000302     -0.000112     -0.001303      0.000000
     76 O     c       0.000107     -0.000065      0.000115      0.000000
     77 O     c      -0.000163      0.000255     -0.000291      0.000000
     78 Ti    c      -0.000898     -0.000414     -0.000656      0.000000
     79 O     c      -0.000489      0.000237      0.000157      0.000000
     80 O     c       0.000903     -0.000265      0.000441      0.000000
--------------------------------------------------------------------------------
  Maximum abs         0.003198      0.000843      0.002666      0.000000
--------------------------------------------------------------------------------


  Time to end of optimisation =      21.0625 seconds


  Peak dynamic memory used =       1.90 MB 


  Timing analysis for GULP :

--------------------------------------------------------------------------------
  Task / Subroutine                                          Time (Seconds)
--------------------------------------------------------------------------------
  Calculation of reciprocal space energy and derivatives         11.8125
  Calculation of real space energy and derivatives                9.1094
  Calculation of matrix inversion                                 0.0781
--------------------------------------------------------------------------------
  Total CPU time                                                 21.0625
--------------------------------------------------------------------------------


  Dump file written as temp.res                                                


  Job Finished at 15:28.32 16th April      2021                               

