********************************************************************************
*                       GENERAL UTILITY LATTICE PROGRAM                        *
*                                 Julian Gale                                  *
*                      Nanochemistry Research Institute                        *
*                           Department of Chemistry                            *
*                    Curtin University, Western Australia                      *
********************************************************************************
* Version = 4.3.5 * Last modified = 16th December 2015                         *
********************************************************************************
*  optimise     - perform optimisation run                                     *
*  conp         - constant pressure calculation                                *
********************************************************************************
* ASE calculation                                                              *
********************************************************************************


  Job Started  at 14:39.24 15th June       2021                               

  Number of CPUs =     1


  Total number of configurations input =   1

********************************************************************************
*  Input for Configuration =   1                                               *
********************************************************************************

  Formula = Ba8O20In4Al4                                                

  Number of irreducible atoms/shells =      64


  Total number atoms/shells =      64

  Dimensionality = 3               :  Bulk   



  Cartesian lattice vectors (Angstroms) :

        5.800000    0.000000    0.000000
       -2.900000    5.022454    0.000000
        0.000000    0.000000   20.800800

  Cell parameters (Angstroms/Degrees):

  a =       5.8000    alpha =  90.0000
  b =       5.7996    beta  =  90.0000
  c =      20.8008    gamma = 120.0024

  Initial cell volume =         605.932161 Angs**3

  Temperature of configuration =  0.000     K 

  Pressure of configuration =         0.000 GPa 

  Fractional coordinates of asymmetric unit :

--------------------------------------------------------------------------------
   No.  Atomic       x           y          z         Charge      Occupancy
        Label      (Frac)      (Frac)     (Frac)        (e)         (Frac)  
--------------------------------------------------------------------------------
      1 Ba    c    0.007188    0.997247    0.062006     0.16900    1.000000    
      2 O     c    0.090381 *  0.502156 *  0.081845 *   0.90000    1.000000    
      3 O     c    0.505858 *  0.936420 *  0.083835 *   0.90000    1.000000    
      4 O     c    0.530198 *  0.464293 *  0.070997 *   0.90000    1.000000    
      5 In    c    0.740398 *  0.278672 *  0.050854 *   3.00000    1.000000    
      6 Ba    c    0.351658 *  0.668016 *  0.174797 *   0.16900    1.000000    
      7 O     c    0.964255 *  0.994163 *  0.189707 *   0.90000    1.000000    
      8 Al    c    0.991576 *  0.005455 *  0.267591 *   3.00000    1.000000    
      9 Ba    c    0.655457 *  0.340052 *  0.300835 *   0.16900    1.000000    
     10 O     c    0.700359 *  0.848974 *  0.314706 *   0.90000    1.000000    
     11 O     c    0.144159 *  0.303913 *  0.310914 *   0.90000    1.000000    
     12 O     c    0.150815 *  0.865510 *  0.310518 *   0.90000    1.000000    
     13 In    c    0.996250 *  0.998631 *  0.389513 *   3.00000    1.000000    
     14 Ba    c    0.335240 *  0.667918 *  0.457305 *   0.16900    1.000000    
     15 O     c    0.338818 *  0.170289 *  0.448198 *   0.90000    1.000000    
     16 O     c    0.827318 *  0.648715 *  0.449358 *   0.90000    1.000000    
     17 O     c    0.814434 *  0.160063 *  0.450303 *   0.90000    1.000000    
     18 Al    c    0.660225 *  0.327858 *  0.453441 *   3.00000    1.000000    
     19 Ba    c    0.998387 *  0.050109 *  0.598928 *   0.16900    1.000000    
     20 O     c    0.355859 *  0.642317 *  0.570263 *   0.90000    1.000000    
     21 Al    c    0.663226 *  0.381419 *  0.644757 *   3.00000    1.000000    
     22 Ba    c    0.328408 *  0.683198 *  0.714576 *   0.16900    1.000000    
     23 O     c    0.370575 *  0.205785 *  0.679772 *   0.90000    1.000000    
     24 O     c    0.810967 *  0.667052 *  0.683692 *   0.90000    1.000000    
     25 O     c    0.819670 *  0.231960 *  0.675315 *   0.90000    1.000000    
     26 In    c    0.661147 *  0.351733 *  0.762097 *   3.00000    1.000000    
     27 Ba    c    0.967886 *  0.015889 *  0.842392 *   0.16900    1.000000    
     28 O     c    0.986088 *  0.514728 *  0.823071 *   0.90000    1.000000    
     29 O     c    0.507159 *  0.021782 *  0.820703 *   0.90000    1.000000    
     30 O     c    0.504595 *  0.498424 *  0.826617 *   0.90000    1.000000    
     31 In    c    0.663166 *  0.338675 *  0.892174 *   3.00000    1.000000    
     32 Ba    c    0.282238 *  0.734712 *  0.913518 *   0.16900    1.000000    
     33 O     c    0.323677 *  0.214729 *  0.952524 *   0.90000    1.000000    
     34 O     c    0.776209 *  0.654770 *  0.956500 *   0.90000    1.000000    
     35 O     c    0.808799 *  0.171106 *  0.953266 *   0.90000    1.000000    
     36 Al    c    0.483307 *  0.495862 *  0.997469 *   3.00000    1.000000    
     37 Ba    s    0.012411 *  0.989499 *  0.064852 *   1.83100    1.000000    
     38 O     s    0.071867 *  0.486840 *  0.080336 *  -2.90000    1.000000    
     39 O     s    0.520822 *  0.954004 *  0.082621 *  -2.90000    1.000000    
     40 O     s    0.533805 *  0.460320 *  0.063338 *  -2.90000    1.000000    
     41 Ba    s    0.351961 *  0.667696 *  0.175406 *   1.83100    1.000000    
     42 O     s    0.966551 *  0.994255 *  0.195377 *  -2.90000    1.000000    
     43 Ba    s    0.656071 *  0.339760 *  0.300401 *   1.83100    1.000000    
     44 O     s    0.721517 *  0.859102 *  0.314076 *  -2.90000    1.000000    
     45 O     s    0.133675 *  0.282740 *  0.309960 *  -2.90000    1.000000    
     46 O     s    0.140116 *  0.876201 *  0.309794 *  -2.90000    1.000000    
     47 Ba    s    0.334822 *  0.667794 *  0.456916 *   1.83100    1.000000    
     48 O     s    0.357382 *  0.179369 *  0.447231 *  -2.90000    1.000000    
     49 O     s    0.817190 *  0.629110 *  0.448302 *  -2.90000    1.000000    
     50 O     s    0.805674 *  0.170294 *  0.449333 *  -2.90000    1.000000    
     51 Ba    s    0.998327 *  0.049908 *  0.598195 *   1.83100    1.000000    
     52 O     s    0.356015 *  0.640192 *  0.569427 *  -2.90000    1.000000    
     53 Ba    s    0.328312 *  0.683720 *  0.714106 *   1.83100    1.000000    
     54 O     s    0.393945 *  0.220517 *  0.677722 *  -2.90000    1.000000    
     55 O     s    0.797928 *  0.643379 *  0.681250 *  -2.90000    1.000000    
     56 O     s    0.808733 *  0.243261 *  0.673415 *  -2.90000    1.000000    
     57 Ba    s    0.968609 *  0.016309 *  0.842210 *   1.83100    1.000000    
     58 O     s    0.972040 *  0.507646 *  0.823602 *  -2.90000    1.000000    
     59 O     s    0.514776 *  0.036067 *  0.821116 *  -2.90000    1.000000    
     60 O     s    0.512727 *  0.491176 *  0.825912 *  -2.90000    1.000000    
     61 Ba    s    0.282224 *  0.734360 *  0.913767 *   1.83100    1.000000    
     62 O     s    0.340788 *  0.235498 *  0.954007 *  -2.90000    1.000000    
     63 O     s    0.755107 *  0.637658 *  0.957460 *  -2.90000    1.000000    
     64 O     s    0.801583 *  0.178870 *  0.952579 *  -2.90000    1.000000    
--------------------------------------------------------------------------------



********************************************************************************
*  General input information                                                   *
********************************************************************************

  Species output for all configurations : 

--------------------------------------------------------------------------------
  Species    Type    Atomic    Atomic    Charge       Radii (Angs)     Library
                     Number     Mass       (e)     Cova   Ionic  VDW   Symbol
--------------------------------------------------------------------------------
    Ba       Core       56     137.33   0.169000   1.340  0.000  2.000          
    O        Core        8      16.00   0.900000   0.730  0.000  1.360          
    In       Core       49     114.82   3.000000   1.630  0.000  2.430          
    Al       Core       13      26.98   3.000000   1.350  0.000  2.050          
    Ba       Shell      56       0.00   1.831000   1.340  0.000  2.000          
    O        Shell       8       0.00  -2.900000   0.730  0.000  1.360          
--------------------------------------------------------------------------------


  Lattice summation method               =    Ewald          (3-D)
                                         =    Parry          (2-D)
                                         =    Saunders et al (1-D)
  Accuracy factor for lattice sums       =   12.000


  Time limit =     900.00 seconds

  Maximum range for interatomic potentials =    100000.000000 Angstroms

  General interatomic potentials :

--------------------------------------------------------------------------------
Atom  Types   Potential         A         B         C         D     Cutoffs(Ang)
  1     2                                                            Min    Max 
--------------------------------------------------------------------------------
O    s O    s Buckingham    0.228E+05 0.149      27.9      0.00     0.000 12.000
O    c O    s Spring (c-s)   70.0      0.00      0.00      0.00     0.000  0.800
In   c O    s Buckingham    0.150E+04 0.333      4.33      0.00     0.000 12.000
Al   c O    s Buckingham    0.106E+04 0.312      0.00      0.00     0.000 12.000
O    s Ba   s Buckingham     865.     0.387      0.00      0.00     0.000 12.000
Ba   c Ba   s Spring (c-s)   34.0      0.00      0.00      0.00     0.000  0.800
--------------------------------------------------------------------------------

********************************************************************************
*  Output for configuration   1                                                *
********************************************************************************


  Components of energy : 

--------------------------------------------------------------------------------
  Interatomic potentials     =         202.95937965 eV
  Monopole - monopole (real) =        -363.18205657 eV
  Monopole - monopole (recip)=        -681.75890113 eV
  Monopole - monopole (total)=       -1044.94095770 eV
--------------------------------------------------------------------------------
  Total lattice energy       =        -841.98157806 eV
--------------------------------------------------------------------------------
  Total lattice energy       =          -81238.3514 kJ/(mole unit cells)
--------------------------------------------------------------------------------


  Number of variables =      195

  Maximum number of calculations  =          5000
  Maximum Hessian update interval =            10
  Maximum step size               =   1.000000000
  Maximum parameter tolerance     =   0.000010000
  Maximum function  tolerance     =   0.000010000
  Maximum gradient  tolerance     =   0.001000000
  Maximum gradient  component     =   0.010000000

  Symmetry not applied to optimisation

  Cell parameters to be optimised using strains

  Newton-Raphson optimiser to be used

  BFGS hessian update to be used

  Start of bulk optimisation :

  Cycle:      0 Energy:      -841.981578  Gnorm:      0.362842  CPU:    0.172
  ** Hessian calculated **
  Cycle:      1 Energy:      -843.854314  Gnorm:      0.500620  CPU:    0.359
  Cycle:      2 Energy:      -844.483687  Gnorm:      0.500487  CPU:    0.578
  Cycle:      3 Energy:      -844.979791  Gnorm:      0.502231  CPU:    1.031
  Cycle:      4 Energy:      -845.717334  Gnorm:      0.605674  CPU:    1.516
  Cycle:      5 Energy:      -846.349369  Gnorm:      0.563615  CPU:    1.922
  Cycle:      6 Energy:      -847.175530  Gnorm:      0.714053  CPU:    2.406
  Cycle:      7 Energy:      -848.075581  Gnorm:      0.662328  CPU:    2.891
  Cycle:      8 Energy:      -849.186165  Gnorm:      0.758361  CPU:    3.359
  Cycle:      9 Energy:      -850.045655  Gnorm:      0.613635  CPU:    3.750
  Cycle:     10 Energy:      -850.578944  Gnorm:      0.494851  CPU:    4.156
  ** Hessian calculated **
  Cycle:     11 Energy:      -850.799847  Gnorm:      0.366271  CPU:    4.766
  Cycle:     12 Energy:      -851.044543  Gnorm:      0.415423  CPU:    5.297
  Cycle:     13 Energy:      -851.353090  Gnorm:      0.338885  CPU:    5.781
  Cycle:     14 Energy:      -851.568793  Gnorm:      0.372377  CPU:    6.188
  Cycle:     15 Energy:      -851.806348  Gnorm:      0.307243  CPU:    6.578
  Cycle:     16 Energy:      -852.013057  Gnorm:      0.318903  CPU:    6.984
  Cycle:     17 Energy:      -852.163293  Gnorm:      0.263346  CPU:    7.391
  Cycle:     18 Energy:      -852.349310  Gnorm:      0.301283  CPU:    7.797
  Cycle:     19 Energy:      -852.549262  Gnorm:      0.333918  CPU:    8.297
  Cycle:     20 Energy:      -852.885632  Gnorm:      0.410828  CPU:    8.781
  ** Hessian calculated **
  Cycle:     21 Energy:      -853.040440  Gnorm:      0.237755  CPU:    9.359
  Cycle:     22 Energy:      -853.138771  Gnorm:      0.235110  CPU:    9.844
  Cycle:     23 Energy:      -853.256643  Gnorm:      0.242749  CPU:   10.344
  Cycle:     24 Energy:      -853.403388  Gnorm:      0.291901  CPU:   10.844
  Cycle:     25 Energy:      -853.609939  Gnorm:      0.347933  CPU:   11.344
  Cycle:     26 Energy:      -853.990587  Gnorm:      0.543644  CPU:   11.844
  Cycle:     27 Energy:      -854.735311  Gnorm:      0.709345  CPU:   12.516
  Cycle:     28 Energy:      -855.131822  Gnorm:      0.625751  CPU:   12.938
  Cycle:     29 Energy:      -855.835306  Gnorm:      0.474846  CPU:   13.422
  Cycle:     30 Energy:      -856.142361  Gnorm:      0.405082  CPU:   13.797
  ** Hessian calculated **
  Cycle:     31 Energy:      -856.291750  Gnorm:      0.295899  CPU:   14.359
  Cycle:     32 Energy:      -856.569081  Gnorm:      0.386996  CPU:   14.844
  Cycle:     33 Energy:      -856.881768  Gnorm:      0.379932  CPU:   15.344
  Cycle:     34 Energy:      -857.248641  Gnorm:      0.447628  CPU:   15.828
  Cycle:     35 Energy:      -857.690342  Gnorm:      0.408964  CPU:   16.313
  Cycle:     36 Energy:      -858.022430  Gnorm:      0.408949  CPU:   16.719
  Cycle:     37 Energy:      -858.378700  Gnorm:      0.389625  CPU:   17.234
  Cycle:     38 Energy:      -858.669478  Gnorm:      0.390710  CPU:   17.656
  Cycle:     39 Energy:      -859.158142  Gnorm:      0.480212  CPU:   18.172
  Cycle:     40 Energy:      -859.859336  Gnorm:      0.487415  CPU:   18.672
  ** Hessian calculated **
  Cycle:     41 Energy:      -860.253950  Gnorm:      0.404740  CPU:   19.266
  Cycle:     42 Energy:      -860.561910  Gnorm:      0.360287  CPU:   19.766
  Cycle:     43 Energy:      -860.779885  Gnorm:      0.317885  CPU:   20.172
  Cycle:     44 Energy:      -860.990758  Gnorm:      0.394235  CPU:   20.656
  Cycle:     45 Energy:      -861.281741  Gnorm:      0.383781  CPU:   21.156
  Cycle:     46 Energy:      -861.587858  Gnorm:      0.391690  CPU:   21.641
  Cycle:     47 Energy:      -861.829989  Gnorm:      0.305468  CPU:   22.031
  Cycle:     48 Energy:      -861.966006  Gnorm:      0.236605  CPU:   22.422
  Cycle:     49 Energy:      -862.046847  Gnorm:      0.189757  CPU:   22.813
  Cycle:     50 Energy:      -862.131946  Gnorm:      0.233162  CPU:   23.203
  ** Hessian calculated **
  Cycle:     51 Energy:      -862.172987  Gnorm:      0.137251  CPU:   23.766
  Cycle:     52 Energy:      -862.208006  Gnorm:      0.182432  CPU:   24.266
  Cycle:     53 Energy:      -862.260417  Gnorm:      0.160091  CPU:   24.641
  Cycle:     54 Energy:      -862.330124  Gnorm:      0.186090  CPU:   25.063
  Cycle:     55 Energy:      -862.407674  Gnorm:      0.178089  CPU:   25.547
  Cycle:     56 Energy:      -862.457471  Gnorm:      0.138117  CPU:   25.938
  Cycle:     57 Energy:      -862.497179  Gnorm:      0.146258  CPU:   26.344
  Cycle:     58 Energy:      -862.553642  Gnorm:      0.155788  CPU:   26.734
  Cycle:     59 Energy:      -862.617672  Gnorm:      0.205391  CPU:   27.141
  Cycle:     60 Energy:      -862.713122  Gnorm:      0.229473  CPU:   27.625
  ** Hessian calculated **
  Cycle:     61 Energy:      -862.766229  Gnorm:      0.140342  CPU:   28.203
  Cycle:     62 Energy:      -862.804920  Gnorm:      0.146093  CPU:   28.672
  Cycle:     63 Energy:      -862.847215  Gnorm:      0.148369  CPU:   29.078
  Cycle:     64 Energy:      -862.884174  Gnorm:      0.128493  CPU:   29.531
  Cycle:     65 Energy:      -862.924612  Gnorm:      0.146971  CPU:   29.922
  Cycle:     66 Energy:      -862.982030  Gnorm:      0.187426  CPU:   30.391
  Cycle:     67 Energy:      -863.058019  Gnorm:      0.220186  CPU:   30.875
  Cycle:     68 Energy:      -863.146506  Gnorm:      0.201585  CPU:   31.359
  Cycle:     69 Energy:      -863.212177  Gnorm:      0.194852  CPU:   31.750
  Cycle:     70 Energy:      -863.289135  Gnorm:      0.222301  CPU:   32.219
  ** Hessian calculated **
  Cycle:     71 Energy:      -863.342802  Gnorm:      0.145266  CPU:   32.781
  Cycle:     72 Energy:      -863.401306  Gnorm:      0.205323  CPU:   33.250
  Cycle:     73 Energy:      -863.479639  Gnorm:      0.189379  CPU:   33.641
  Cycle:     74 Energy:      -863.557542  Gnorm:      0.198258  CPU:   34.047
  Cycle:     75 Energy:      -863.633427  Gnorm:      0.145767  CPU:   34.438
  Cycle:     76 Energy:      -863.685707  Gnorm:      0.145736  CPU:   34.797
  Cycle:     77 Energy:      -863.750128  Gnorm:      0.214233  CPU:   35.188
  Cycle:     78 Energy:      -863.813973  Gnorm:      0.165911  CPU:   35.578
  Cycle:     79 Energy:      -863.872135  Gnorm:      0.169397  CPU:   35.969
  Cycle:     80 Energy:      -863.938101  Gnorm:      0.244501  CPU:   36.453
  ** Hessian calculated **
  Cycle:     81 Energy:      -863.990651  Gnorm:      0.151426  CPU:   37.000
  Cycle:     82 Energy:      -864.040123  Gnorm:      0.167542  CPU:   37.500
  Cycle:     83 Energy:      -864.091556  Gnorm:      0.174398  CPU:   37.891
  Cycle:     84 Energy:      -864.139994  Gnorm:      0.140296  CPU:   38.281
  Cycle:     85 Energy:      -864.182341  Gnorm:      0.125750  CPU:   38.672
  Cycle:     86 Energy:      -864.231972  Gnorm:      0.164038  CPU:   39.172
  Cycle:     87 Energy:      -864.286518  Gnorm:      0.176235  CPU:   39.672
  Cycle:     88 Energy:      -864.339233  Gnorm:      0.151507  CPU:   40.047
  Cycle:     89 Energy:      -864.376238  Gnorm:      0.118754  CPU:   40.453
  Cycle:     90 Energy:      -864.408481  Gnorm:      0.148084  CPU:   40.859
  ** Hessian calculated **
  Cycle:     91 Energy:      -864.631432  Gnorm:      0.138478  CPU:   41.844
  Cycle:     92 Energy:      -864.846628  Gnorm:      0.121481  CPU:   42.453
  ** Hessian calculated **
  Cycle:     93 Energy:      -864.865401  Gnorm:      0.077693  CPU:   43.047
  Cycle:     94 Energy:      -864.886037  Gnorm:      0.113508  CPU:   43.578
  Cycle:     95 Energy:      -864.909775  Gnorm:      0.096017  CPU:   43.984
  Cycle:     96 Energy:      -864.930987  Gnorm:      0.102555  CPU:   44.359
  Cycle:     97 Energy:      -864.948898  Gnorm:      0.073869  CPU:   44.750
  Cycle:     98 Energy:      -864.962691  Gnorm:      0.072160  CPU:   45.125
  Cycle:     99 Energy:      -864.978552  Gnorm:      0.093273  CPU:   45.625
  Cycle:    100 Energy:      -864.992626  Gnorm:      0.081182  CPU:   46.141
  Cycle:    101 Energy:      -865.003386  Gnorm:      0.065587  CPU:   46.563
  Cycle:    102 Energy:      -865.012802  Gnorm:      0.100439  CPU:   47.063
  ** Hessian calculated **
  Cycle:    103 Energy:      -865.020421  Gnorm:      0.058944  CPU:   47.609
  Cycle:    104 Energy:      -865.028675  Gnorm:      0.073980  CPU:   48.000
  Cycle:    105 Energy:      -865.037899  Gnorm:      0.073529  CPU:   48.484
  Cycle:    106 Energy:      -865.046955  Gnorm:      0.064667  CPU:   48.875
  Cycle:    107 Energy:      -865.054687  Gnorm:      0.051278  CPU:   49.266
  Cycle:    108 Energy:      -865.062564  Gnorm:      0.060204  CPU:   49.734
  Cycle:    109 Energy:      -865.071030  Gnorm:      0.060505  CPU:   50.109
  Cycle:    110 Energy:      -865.078691  Gnorm:      0.058926  CPU:   50.578
  Cycle:    111 Energy:      -865.084513  Gnorm:      0.045649  CPU:   50.953
  Cycle:    112 Energy:      -865.089092  Gnorm:      0.054252  CPU:   51.328
  ** Hessian calculated **
  Cycle:    113 Energy:      -865.115623  Gnorm:      0.051361  CPU:   52.313
  Cycle:    114 Energy:      -865.147915  Gnorm:      0.047908  CPU:   52.922
  Cycle:    115 Energy:      -865.200419  Gnorm:      0.044816  CPU:   53.563
  Cycle:    116 Energy:      -865.259731  Gnorm:      0.027481  CPU:   54.125
  Cycle:    117 Energy:      -865.278081  Gnorm:      0.053702  CPU:   54.500
  Cycle:    118 Energy:      -865.288622  Gnorm:      0.006021  CPU:   54.891
  Cycle:    119 Energy:      -865.289496  Gnorm:      0.009563  CPU:   55.375
  Cycle:    120 Energy:      -865.289845  Gnorm:      0.006954  CPU:   55.766
  Cycle:    121 Energy:      -865.290060  Gnorm:      0.003311  CPU:   56.141
  Cycle:    122 Energy:      -865.290134  Gnorm:      0.002009  CPU:   56.516
  ** Hessian calculated **
  Cycle:    123 Energy:      -865.290141  Gnorm:      0.001339  CPU:   57.078
  Cycle:    124 Energy:      -865.290145  Gnorm:      0.001094  CPU:   57.453
  Cycle:    125 Energy:      -865.290149  Gnorm:      0.001133  CPU:   57.844
  Cycle:    126 Energy:      -865.290151  Gnorm:      0.000850  CPU:   58.219
  Cycle:    127 Energy:      -865.290153  Gnorm:      0.001202  CPU:   58.594
  Cycle:    128 Energy:      -865.290156  Gnorm:      0.000832  CPU:   58.984
  Cycle:    129 Energy:      -865.290157  Gnorm:      0.000878  CPU:   59.359
  Cycle:    130 Energy:      -865.290159  Gnorm:      0.000880  CPU:   59.750
  Cycle:    131 Energy:      -865.290160  Gnorm:      0.000746  CPU:   60.109
  Cycle:    132 Energy:      -865.290162  Gnorm:      0.000790  CPU:   60.500
  ** Hessian calculated **
  Cycle:    133 Energy:      -865.290164  Gnorm:      0.000774  CPU:   61.047
  Cycle:    134 Energy:      -865.290167  Gnorm:      0.000751  CPU:   61.422
  Cycle:    135 Energy:      -865.290171  Gnorm:      0.000716  CPU:   61.813
  Cycle:    136 Energy:      -865.290178  Gnorm:      0.000664  CPU:   62.188
  Cycle:    137 Energy:      -865.290187  Gnorm:      0.000586  CPU:   62.594
  Cycle:    138 Energy:      -865.290198  Gnorm:      0.000469  CPU:   62.969
  Cycle:    139 Energy:      -865.290210  Gnorm:      0.000294  CPU:   63.344


  **** Optimisation achieved ****


  Final energy =    -865.29021724 eV
  Final Gnorm  =       0.00003945

  Components of energy : 

--------------------------------------------------------------------------------
  Interatomic potentials     =         176.42290716 eV
  Monopole - monopole (real) =        -367.04277597 eV
  Monopole - monopole (recip)=        -674.67034843 eV
  Monopole - monopole (total)=       -1041.71312440 eV
--------------------------------------------------------------------------------
  Total lattice energy       =        -865.29021724 eV
--------------------------------------------------------------------------------
  Total lattice energy       =          -83487.2788 kJ/(mole unit cells)
--------------------------------------------------------------------------------

  Final fractional coordinates of atoms :

--------------------------------------------------------------------------------
   No.  Atomic        x           y          z          Radius
        Label       (Frac)      (Frac)     (Frac)       (Angs) 
--------------------------------------------------------------------------------
     1  Ba    c     0.007188    0.997247    0.062006    0.000000
     2  O     c     0.047913    0.472010    0.041785    0.000000
     3  O     c     0.501161    0.940670    0.057538    0.000000
     4  O     c     0.528712    0.515100    0.061853    0.000000
     5  In    c     0.656549    0.277507    0.008707    0.000000
     6  Ba    c     0.401109    0.696989    0.169229    0.000000
     7  O     c     0.882727    0.055219    0.198465    0.000000
     8  Al    c     0.003310    0.974567    0.257632    0.000000
     9  Ba    c     0.696482    0.309029    0.285792    0.000000
    10  O     c     0.758822    0.776701    0.316358    0.000000
    11  O     c     0.180109    0.225663    0.315585    0.000000
    12  O     c     0.172391    0.826862    0.240286    0.000000
    13  In    c     0.033961    0.948628    0.394233    0.000000
    14  Ba    c     0.361475    0.622282    0.388324    0.000000
    15  O     c     0.426873    0.084325    0.407603    0.000000
    16  O     c     0.909246    0.561848    0.412917    0.000000
    17  O     c     0.854746    0.105952    0.460513    0.000000
    18  Al    c     0.698347    0.279069    0.452451    0.000000
    19  Ba    c     0.881325    0.033706    0.590565    0.000000
    20  O     c     0.587344    0.368383    0.522456    0.000000
    21  Al    c     0.552168    0.367025    0.603519    0.000000
    22  Ba    c     0.191954    0.719348    0.701199    0.000000
    23  O     c     0.277789    0.125888    0.644121    0.000000
    24  O     c     0.549701    0.627400    0.646868    0.000000
    25  O     c     0.780258    0.359811    0.648349    0.000000
    26  In    c     0.517588    0.385817    0.732785    0.000000
    27  Ba    c     0.825005    0.064609    0.826341    0.000000
    28  O     c     0.798772    0.648619    0.796530    0.000000
    29  O     c     0.445191    0.090200    0.793407    0.000000
    30  O     c     0.263268    0.430927    0.801140    0.000000
    31  In    c     0.491720    0.394070    0.877166    0.000000
    32  Ba    c     0.165692    0.743934    0.879964    0.000000
    33  O     c     0.280523    0.134516    0.953450    0.000000
    34  O     c     0.497514    0.694771    0.937343    0.000000
    35  O     c     0.786966    0.366014    0.913832    0.000000
    36  Al    c     0.371601    0.631605    0.017103    0.000000
    37  Ba    s     0.007047    0.996704    0.062222    0.000000
    38  O     s     0.058156    0.475859    0.039791    0.000000
    39  O     s     0.500262    0.935743    0.054704    0.000000
    40  O     s     0.524810    0.516450    0.059447    0.000000
    41  Ba    s     0.401200    0.695669    0.169281    0.000000
    42  O     s     0.887410    0.048857    0.202017    0.000000
    43  Ba    s     0.696525    0.308681    0.285587    0.000000
    44  O     s     0.771169    0.785481    0.315751    0.000000
    45  O     s     0.171441    0.212226    0.314913    0.000000
    46  O     s     0.165222    0.834246    0.240313    0.000000
    47  Ba    s     0.361618    0.622151    0.388639    0.000000
    48  O     s     0.431492    0.088940    0.409139    0.000000
    49  O     s     0.903861    0.556214    0.414069    0.000000
    50  O     s     0.852131    0.109485    0.458844    0.000000
    51  Ba    s     0.881420    0.033573    0.590278    0.000000
    52  O     s     0.592263    0.362060    0.524346    0.000000
    53  Ba    s     0.192048    0.719092    0.701193    0.000000
    54  O     s     0.291032    0.138244    0.642898    0.000000
    55  O     s     0.550029    0.615127    0.645634    0.000000
    56  O     s     0.768805    0.360476    0.647221    0.000000
    57  Ba    s     0.824894    0.064009    0.826325    0.000000
    58  O     s     0.790802    0.643293    0.796078    0.000000
    59  O     s     0.447416    0.097137    0.793194    0.000000
    60  O     s     0.268733    0.427840    0.800822    0.000000
    61  Ba    s     0.166060    0.744540    0.879840    0.000000
    62  O     s     0.286750    0.137708    0.952302    0.000000
    63  O     s     0.487712    0.683225    0.939796    0.000000
    64  O     s     0.779786    0.366347    0.914951    0.000000
--------------------------------------------------------------------------------

  Final Cartesian lattice vectors (Angstroms) :

        6.022203   -0.067790    0.283192
       -3.069804    5.203752   -0.260499
        1.015625   -0.492442   20.164062


  Final cell parameters and derivatives :

--------------------------------------------------------------------------------
       a            6.029239 Angstrom     dE/de1(xx)    -0.000160 eV/strain
       b            6.047362 Angstrom     dE/de2(yy)     0.000087 eV/strain
       c           20.195628 Angstrom     dE/de3(zz)     0.000158 eV/strain
       alpha       95.135955 Degrees      dE/de4(yz)    -0.000027 eV/strain
       beta        84.410460 Degrees      dE/de5(xz)    -0.000161 eV/strain
       gamma      121.247287 Degrees      dE/de6(xy)    -0.000020 eV/strain
--------------------------------------------------------------------------------

  Primitive cell volume =           625.883058 Angs**3

  Density of cell =      5.268744 g/cm**3

  Non-primitive cell volume =           625.883058 Angs**3


  Final internal derivatives :

--------------------------------------------------------------------------------
   No.  Atomic          a             b             c           Radius
        Label          (eV)          (eV)          (eV)        (eV/Angs)
--------------------------------------------------------------------------------
      1 Ba    c       0.000000      0.000000      0.000000      0.000000
      2 O     c      -0.000442      0.000154     -0.000402      0.000000
      3 O     c      -0.000027      0.000124      0.000170      0.000000
      4 O     c       0.000353      0.000029      0.000208      0.000000
      5 In    c       0.000143      0.000024      0.001173      0.000000
      6 Ba    c       0.000071      0.000009     -0.000209      0.000000
      7 O     c      -0.000145     -0.000089      0.000868      0.000000
      8 Al    c       0.000114     -0.000041      0.000203      0.000000
      9 Ba    c      -0.000043      0.000042     -0.000339      0.000000
     10 O     c       0.000199     -0.000038      0.000163      0.000000
     11 O     c       0.000054     -0.000195     -0.000357      0.000000
     12 O     c       0.000066      0.000039      0.000117      0.000000
     13 In    c       0.000052     -0.000015      0.001074      0.000000
     14 Ba    c       0.000040     -0.000041      0.000252      0.000000
     15 O     c      -0.000228      0.000315     -0.000138      0.000000
     16 O     c      -0.000361      0.000276      0.000080      0.000000
     17 O     c       0.000299     -0.000141      0.000388      0.000000
     18 Al    c       0.000030      0.000097     -0.000271      0.000000
     19 Ba    c      -0.000085      0.000220     -0.000054      0.000000
     20 O     c      -0.000693      0.000516     -0.003940      0.000000
     21 Al    c      -0.000324      0.000193      0.002860      0.000000
     22 Ba    c      -0.000091      0.000063      0.000076      0.000000
     23 O     c      -0.000068      0.000473      0.000311      0.000000
     24 O     c       0.000166     -0.000172     -0.001452      0.000000
     25 O     c       0.000287     -0.000096      0.000404      0.000000
     26 In    c      -0.000225      0.000049     -0.002375      0.000000
     27 Ba    c       0.000014      0.000063      0.000384      0.000000
     28 O     c       0.000031     -0.000079     -0.000521      0.000000
     29 O     c       0.000029      0.000140     -0.000227      0.000000
     30 O     c       0.000020     -0.000197      0.000113      0.000000
     31 In    c       0.000058     -0.000005     -0.000487      0.000000
     32 Ba    c      -0.000036     -0.000056     -0.000315      0.000000
     33 O     c       0.000097     -0.000151     -0.000205      0.000000
     34 O     c       0.000018      0.000277      0.000159      0.000000
     35 O     c      -0.000374      0.000309     -0.000502      0.000000
     36 Al    c      -0.000155     -0.000115     -0.000316      0.000000
     37 Ba    s       0.000136     -0.000034      0.000468      0.000000
     38 O     s       0.000200     -0.000103      0.000416      0.000000
     39 O     s      -0.000351     -0.000400      0.000493      0.000000
     40 O     s      -0.000247      0.000090      0.000175      0.000000
     41 Ba    s      -0.000188      0.000200     -0.000499      0.000000
     42 O     s       0.000199     -0.000140      0.000179      0.000000
     43 Ba    s       0.000078     -0.000061      0.000072      0.000000
     44 O     s      -0.000021      0.000051      0.000141      0.000000
     45 O     s      -0.000143     -0.000104     -0.000222      0.000000
     46 O     s      -0.000396      0.000351     -0.000020      0.000000
     47 Ba    s      -0.000031      0.000017      0.000508      0.000000
     48 O     s       0.000172     -0.000358     -0.000832      0.000000
     49 O     s       0.000314     -0.000168     -0.000380      0.000000
     50 O     s      -0.000305      0.000196     -0.000882      0.000000
     51 Ba    s       0.000244     -0.000172      0.000421      0.000000
     52 O     s       0.000629     -0.000930      0.000046      0.000000
     53 Ba    s       0.000103     -0.000078      0.000631      0.000000
     54 O     s      -0.000166     -0.000214      0.001817      0.000000
     55 O     s      -0.000019      0.000784      0.002349      0.000000
     56 O     s       0.000104      0.000116      0.000467      0.000000
     57 Ba    s      -0.000006     -0.000006      0.000271      0.000000
     58 O     s      -0.000146     -0.000162      0.000215      0.000000
     59 O     s       0.000051     -0.000226      0.000391      0.000000
     60 O     s       0.000102      0.000177     -0.000470      0.000000
     61 Ba    s      -0.000062     -0.000076     -0.000613      0.000000
     62 O     s      -0.000282      0.000110      0.000347      0.000000
     63 O     s      -0.000031     -0.000195      0.001147      0.000000
     64 O     s       0.000031     -0.000038     -0.000781      0.000000
--------------------------------------------------------------------------------
  Maximum abs         0.000693      0.000930      0.003940      0.000000
--------------------------------------------------------------------------------


  Time to end of optimisation =      63.7188 seconds


  Peak dynamic memory used =       1.43 MB 


  Timing analysis for GULP :

--------------------------------------------------------------------------------
  Task / Subroutine                                          Time (Seconds)
--------------------------------------------------------------------------------
  Calculation of reciprocal space energy and derivatives          1.4844
  Calculation of real space energy and derivatives               62.0000
  Calculation of matrix inversion                                 0.1094
--------------------------------------------------------------------------------
  Total CPU time                                                 63.7188
--------------------------------------------------------------------------------


  Dump file written as temp.res                                                


  Job Finished at 14:40.28 15th June       2021                               

